<?xml version="1.0" encoding="UTF-8"?>

<!-- generated on 2026-01-24T11:24:41.266742+05:30 by Eclipse SUMO GUI 1.25.0
<sumoConfiguration xmlns:xsi="http://www.w3.org/2001/XMLSchema-instance" xsi:noNamespaceSchemaLocation="http://sumo.dlr.de/xsd/sumoConfiguration.xsd">

    <input>
        <net-file value="simulation_map.net.xml"/>
        <route-files value="simulation_map.rou.xml"/>
    </input>

    <output>
        <tripinfo-output value="tripinfo_adaptive.xml"/>
    </output>

    <time>
        <begin value="0"/>
        <end value="3600"/>
    </time>

    <traci_server>
        <remote-port value="54296"/>
    </traci_server>

</sumoConfiguration>
-->

<tripinfos xmlns:xsi="http://www.w3.org/2001/XMLSchema-instance" xsi:noNamespaceSchemaLocation="http://sumo.dlr.de/xsd/tripinfo_file.xsd">
    <tripinfo id="0" depart="0.00" departLane="368807686#2_0" departPos="5.10" departSpeed="0.00" departDelay="0.00" arrival="68.00" arrivalLane="-131497266#0_0" arrivalPos="91.67" arrivalSpeed="13.72" duration="68.00" routeLength="863.15" waitingTime="0.00" waitingCount="0" stopTime="0.00" timeLoss="7.87" rerouteNo="0" devices="tripinfo_0" vType="DEFAULT_VEHTYPE" speedFactor="1.06" vaporized=""/>
    <tripinfo id="22" depart="33.00" departLane="-313323574_0" departPos="5.10" departSpeed="0.00" departDelay="0.00" arrival="125.00" arrivalLane="-50633775#0_0" arrivalPos="9.57" arrivalSpeed="7.35" duration="92.00" routeLength="681.20" waitingTime="0.00" waitingCount="0" stopTime="0.00" timeLoss="10.53" rerouteNo="0" devices="tripinfo_22" vType="DEFAULT_VEHTYPE" speedFactor="0.97" vaporized=""/>
    <tripinfo id="28" depart="42.00" departLane="-377061441_0" departPos="5.10" departSpeed="0.00" departDelay="0.00" arrival="129.00" arrivalLane="-54225362#0_0" arrivalPos="145.78" arrivalSpeed="8.60" duration="87.00" routeLength="719.84" waitingTime="0.00" waitingCount="0" stopTime="0.00" timeLoss="9.68" rerouteNo="0" devices="tripinfo_28" vType="DEFAULT_VEHTYPE" speedFactor="1.13" vaporized=""/>
    <tripinfo id="40" depart="60.00" departLane="343119763#10_0" departPos="5.10" departSpeed="0.00" departDelay="0.00" arrival="146.00" arrivalLane="54225363#1_0" arrivalPos="37.41" arrivalSpeed="7.84" duration="86.00" routeLength="724.48" waitingTime="0.00" waitingCount="0" stopTime="0.00" timeLoss="10.72" rerouteNo="0" devices="tripinfo_40" vType="DEFAULT_VEHTYPE" speedFactor="1.03" vaporized=""/>
    <tripinfo id="23" depart="35.00" departLane="360011380#3_0" departPos="0.20" departSpeed="0.00" departDelay="0.50" arrival="181.00" arrivalLane="-54225112_0" arrivalPos="163.68" arrivalSpeed="6.46" duration="146.00" routeLength="674.91" waitingTime="45.00" waitingCount="2" stopTime="0.00" timeLoss="67.45" rerouteNo="0" devices="tripinfo_23" vType="DEFAULT_VEHTYPE" speedFactor="0.89" vaporized=""/>
    <tripinfo id="67" depart="101.00" departLane="-23185856#4_0" departPos="5.10" departSpeed="0.00" departDelay="0.50" arrival="201.00" arrivalLane="448192239_0" arrivalPos="72.80" arrivalSpeed="6.95" duration="100.00" routeLength="680.84" waitingTime="0.00" waitingCount="0" stopTime="0.00" timeLoss="13.44" rerouteNo="0" devices="tripinfo_67" vType="DEFAULT_VEHTYPE" speedFactor="0.91" vaporized=""/>
    <tripinfo id="18" depart="27.00" departLane="53194748#1_0" departPos="5.10" departSpeed="0.00" departDelay="0.00" arrival="206.00" arrivalLane="24563846_1" arrivalPos="11.27" arrivalSpeed="7.40" duration="179.00" routeLength="1378.07" waitingTime="58.00" waitingCount="2" stopTime="0.00" timeLoss="82.27" rerouteNo="0" devices="tripinfo_18" vType="DEFAULT_VEHTYPE" speedFactor="0.94" vaporized=""/>
    <tripinfo id="96" depart="144.00" departLane="308900303#0_0" departPos="5.10" departSpeed="0.00" departDelay="0.00" arrival="207.00" arrivalLane="-199438208_0" arrivalPos="38.53" arrivalSpeed="8.29" duration="63.00" routeLength="597.48" waitingTime="0.00" waitingCount="0" stopTime="0.00" timeLoss="8.69" rerouteNo="0" devices="tripinfo_96" vType="DEFAULT_VEHTYPE" speedFactor="1.01" vaporized=""/>
    <tripinfo id="113" depart="170.00" departLane="-233596653_0" departPos="5.10" departSpeed="0.00" departDelay="0.50" arrival="241.00" arrivalLane="-389274955#18_0" arrivalPos="24.30" arrivalSpeed="10.36" duration="71.00" routeLength="522.30" waitingTime="14.00" waitingCount="1" stopTime="0.00" timeLoss="31.28" rerouteNo="0" devices="tripinfo_113" vType="DEFAULT_VEHTYPE" speedFactor="1.01" vaporized=""/>
    <tripinfo id="55" depart="83.00" departLane="199430408#0_0" departPos="5.10" departSpeed="0.00" departDelay="0.50" arrival="243.00" arrivalLane="-385959106_0" arrivalPos="61.16" arrivalSpeed="7.79" duration="160.00" routeLength="1054.55" waitingTime="25.00" waitingCount="1" stopTime="0.00" timeLoss="46.14" rerouteNo="0" devices="tripinfo_55" vType="DEFAULT_VEHTYPE" speedFactor="1.00" vaporized=""/>
    <tripinfo id="133" depart="200.00" departLane="518230025_0" departPos="5.10" departSpeed="0.00" departDelay="0.50" arrival="252.00" arrivalLane="-518227696_0" arrivalPos="38.03" arrivalSpeed="7.45" duration="52.00" routeLength="366.72" waitingTime="0.00" waitingCount="0" stopTime="0.00" timeLoss="7.77" rerouteNo="0" devices="tripinfo_133" vType="DEFAULT_VEHTYPE" speedFactor="1.04" vaporized=""/>
    <tripinfo id="94" depart="141.00" departLane="-50633740#1_0" departPos="5.10" departSpeed="0.00" departDelay="0.00" arrival="253.00" arrivalLane="573824328_0" arrivalPos="66.71" arrivalSpeed="14.54" duration="112.00" routeLength="931.88" waitingTime="0.00" waitingCount="0" stopTime="0.00" timeLoss="11.53" rerouteNo="0" devices="tripinfo_94" vType="DEFAULT_VEHTYPE" speedFactor="1.09" vaporized=""/>
    <tripinfo id="58" depart="87.00" departLane="346332100_0" departPos="5.10" departSpeed="0.00" departDelay="0.00" arrival="255.00" arrivalLane="-371385065#0_0" arrivalPos="64.05" arrivalSpeed="8.28" duration="168.00" routeLength="1799.25" waitingTime="2.00" waitingCount="1" stopTime="0.00" timeLoss="22.10" rerouteNo="0" devices="tripinfo_58" vType="DEFAULT_VEHTYPE" speedFactor="1.02" vaporized=""/>
    <tripinfo id="30" depart="45.00" departLane="309708096#2_0" departPos="5.10" departSpeed="0.00" departDelay="0.00" arrival="257.00" arrivalLane="376594245#1_0" arrivalPos="33.34" arrivalSpeed="8.71" duration="212.00" routeLength="1889.17" waitingTime="59.00" waitingCount="2" stopTime="0.00" timeLoss="88.50" rerouteNo="0" devices="tripinfo_30" vType="DEFAULT_VEHTYPE" speedFactor="1.18" vaporized=""/>
    <tripinfo id="108" depart="162.00" departLane="8111675_0" departPos="5.10" departSpeed="0.00" departDelay="0.00" arrival="260.00" arrivalLane="24791500#11_0" arrivalPos="145.89" arrivalSpeed="16.02" duration="98.00" routeLength="1028.79" waitingTime="0.00" waitingCount="0" stopTime="0.00" timeLoss="15.50" rerouteNo="0" devices="tripinfo_108" vType="DEFAULT_VEHTYPE" speedFactor="1.06" vaporized=""/>
    <tripinfo id="120" depart="180.00" departLane="-391271250#1_0" departPos="5.10" departSpeed="0.00" departDelay="0.00" arrival="265.00" arrivalLane="389274955#8_0" arrivalPos="48.15" arrivalSpeed="14.43" duration="85.00" routeLength="898.30" waitingTime="0.00" waitingCount="0" stopTime="0.00" timeLoss="18.22" rerouteNo="0" devices="tripinfo_120" vType="DEFAULT_VEHTYPE" speedFactor="0.94" vaporized=""/>
    <tripinfo id="57" depart="86.00" departLane="-53194744#0_0" departPos="5.10" departSpeed="0.00" departDelay="0.50" arrival="267.00" arrivalLane="346326711#22_0" arrivalPos="88.31" arrivalSpeed="12.01" duration="181.00" routeLength="1917.36" waitingTime="10.00" waitingCount="1" stopTime="0.00" timeLoss="39.22" rerouteNo="0" devices="tripinfo_57" vType="DEFAULT_VEHTYPE" speedFactor="1.14" vaporized=""/>
    <tripinfo id="50" depart="75.00" departLane="389274952#3_0" departPos="5.10" departSpeed="0.00" departDelay="0.00" arrival="272.00" arrivalLane="196287358_0" arrivalPos="70.01" arrivalSpeed="11.01" duration="197.00" routeLength="1041.79" waitingTime="89.00" waitingCount="3" stopTime="0.00" timeLoss="113.31" rerouteNo="0" devices="tripinfo_50" vType="DEFAULT_VEHTYPE" speedFactor="0.85" vaporized=""/>
    <tripinfo id="33" depart="50.00" departLane="-53273640#0_0" departPos="5.10" departSpeed="0.00" departDelay="0.50" arrival="281.00" arrivalLane="-496284252_0" arrivalPos="40.38" arrivalSpeed="2.07" duration="231.00" routeLength="1990.72" waitingTime="28.00" waitingCount="1" stopTime="0.00" timeLoss="65.18" rerouteNo="0" devices="tripinfo_33" vType="DEFAULT_VEHTYPE" speedFactor="1.17" vaporized=""/>
    <tripinfo id="48" depart="72.00" departLane="816466883#5_0" departPos="5.10" departSpeed="0.00" departDelay="0.00" arrival="281.00" arrivalLane="53194746_0" arrivalPos="144.67" arrivalSpeed="7.05" duration="209.00" routeLength="1809.09" waitingTime="48.00" waitingCount="1" stopTime="0.00" timeLoss="72.35" rerouteNo="0" devices="tripinfo_48" vType="DEFAULT_VEHTYPE" speedFactor="0.88" vaporized=""/>
    <tripinfo id="118" depart="177.00" departLane="1046132372#2_0" departPos="5.10" departSpeed="0.00" departDelay="0.00" arrival="285.00" arrivalLane="25293162_0" arrivalPos="106.94" arrivalSpeed="12.61" duration="108.00" routeLength="916.69" waitingTime="30.00" waitingCount="1" stopTime="0.00" timeLoss="50.61" rerouteNo="0" devices="tripinfo_118" vType="DEFAULT_VEHTYPE" speedFactor="0.99" vaporized=""/>
    <tripinfo id="126" depart="189.00" departLane="-233499011#12_0" departPos="5.10" departSpeed="0.00" departDelay="0.00" arrival="285.00" arrivalLane="-391272225#3_0" arrivalPos="24.20" arrivalSpeed="10.23" duration="96.00" routeLength="1064.98" waitingTime="0.00" waitingCount="0" stopTime="0.00" timeLoss="17.17" rerouteNo="0" devices="tripinfo_126" vType="DEFAULT_VEHTYPE" speedFactor="1.03" vaporized=""/>
    <tripinfo id="3" depart="5.00" departLane="1082246898_0" departPos="5.10" departSpeed="0.00" departDelay="0.50" arrival="290.00" arrivalLane="-134641872_0" arrivalPos="32.82" arrivalSpeed="9.01" duration="285.00" routeLength="2484.02" waitingTime="77.00" waitingCount="5" stopTime="0.00" timeLoss="134.67" rerouteNo="0" devices="tripinfo_3" vType="DEFAULT_VEHTYPE" speedFactor="1.08" vaporized=""/>
    <tripinfo id="154" depart="231.00" departLane="-897245148#0_0" departPos="5.10" departSpeed="0.00" departDelay="0.00" arrival="293.00" arrivalLane="343119763#9_0" arrivalPos="143.36" arrivalSpeed="14.33" duration="62.00" routeLength="721.60" waitingTime="0.00" waitingCount="0" stopTime="0.00" timeLoss="10.13" rerouteNo="0" devices="tripinfo_154" vType="DEFAULT_VEHTYPE" speedFactor="1.06" vaporized=""/>
    <tripinfo id="128" depart="192.00" departLane="53273641_0" departPos="5.10" departSpeed="0.00" departDelay="0.00" arrival="296.00" arrivalLane="53789480#1_0" arrivalPos="16.53" arrivalSpeed="9.12" duration="104.00" routeLength="1050.82" waitingTime="0.00" waitingCount="0" stopTime="0.00" timeLoss="16.66" rerouteNo="0" devices="tripinfo_128" vType="DEFAULT_VEHTYPE" speedFactor="1.12" vaporized=""/>
    <tripinfo id="10" depart="15.00" departLane="-54225491#1_0" departPos="5.10" departSpeed="0.00" departDelay="0.00" arrival="297.00" arrivalLane="-371385310#2_0" arrivalPos="120.97" arrivalSpeed="8.66" duration="282.00" routeLength="2410.81" waitingTime="73.00" waitingCount="3" stopTime="0.00" timeLoss="111.53" rerouteNo="0" devices="tripinfo_10" vType="DEFAULT_VEHTYPE" speedFactor="1.09" vaporized=""/>
    <tripinfo id="77" depart="116.00" departLane="-475479116#1_0" departPos="1.14" departSpeed="0.00" departDelay="0.50" arrival="304.00" arrivalLane="-395051016#3_0" arrivalPos="51.36" arrivalSpeed="10.02" duration="188.00" routeLength="1854.30" waitingTime="0.00" waitingCount="0" stopTime="0.00" timeLoss="16.31" rerouteNo="0" devices="tripinfo_77" vType="DEFAULT_VEHTYPE" speedFactor="0.98" vaporized=""/>
    <tripinfo id="2" depart="3.00" departLane="418984155_0" departPos="5.10" departSpeed="0.00" departDelay="0.00" arrival="308.00" arrivalLane="370326667#8_0" arrivalPos="15.43" arrivalSpeed="9.18" duration="305.00" routeLength="2705.54" waitingTime="84.00" waitingCount="2" stopTime="0.00" timeLoss="122.55" rerouteNo="0" devices="tripinfo_2" vType="DEFAULT_VEHTYPE" speedFactor="1.01" vaporized=""/>
    <tripinfo id="34" depart="51.00" departLane="-395051016#25_0" departPos="5.10" departSpeed="0.00" departDelay="0.00" arrival="309.00" arrivalLane="687607144_0" arrivalPos="211.96" arrivalSpeed="13.51" duration="258.00" routeLength="2444.64" waitingTime="0.00" waitingCount="0" stopTime="0.00" timeLoss="30.86" rerouteNo="0" devices="tripinfo_34" vType="DEFAULT_VEHTYPE" speedFactor="0.99" vaporized=""/>
    <tripinfo id="88" depart="132.00" departLane="405513752#0_0" departPos="5.10" departSpeed="0.00" departDelay="0.00" arrival="314.00" arrivalLane="368807686#1_0" arrivalPos="14.44" arrivalSpeed="12.87" duration="182.00" routeLength="1215.61" waitingTime="35.00" waitingCount="2" stopTime="0.00" timeLoss="73.00" rerouteNo="0" devices="tripinfo_88" vType="DEFAULT_VEHTYPE" speedFactor="1.01" vaporized=""/>
    <tripinfo id="14" depart="21.00" departLane="51193425#10_0" departPos="5.10" departSpeed="0.00" departDelay="0.00" arrival="321.00" arrivalLane="391086652#3_0" arrivalPos="47.11" arrivalSpeed="7.08" duration="300.00" routeLength="1772.84" waitingTime="139.00" waitingCount="4" stopTime="0.00" timeLoss="173.46" rerouteNo="0" devices="tripinfo_14" vType="DEFAULT_VEHTYPE" speedFactor="0.99" vaporized=""/>
    <tripinfo id="49" depart="74.00" departLane="-1116740484#1_0" departPos="5.10" departSpeed="0.00" departDelay="0.50" arrival="324.00" arrivalLane="390001790#8_0" arrivalPos="10.34" arrivalSpeed="11.41" duration="250.00" routeLength="2025.02" waitingTime="73.00" waitingCount="3" stopTime="0.00" timeLoss="101.49" rerouteNo="0" devices="tripinfo_49" vType="DEFAULT_VEHTYPE" speedFactor="0.85" vaporized=""/>
    <tripinfo id="29" depart="44.00" departLane="940233622#4_0" departPos="5.10" departSpeed="0.00" departDelay="0.50" arrival="327.00" arrivalLane="346326711#3_0" arrivalPos="41.84" arrivalSpeed="9.91" duration="283.00" routeLength="1193.14" waitingTime="158.00" waitingCount="4" stopTime="0.00" timeLoss="194.99" rerouteNo="0" devices="tripinfo_29" vType="DEFAULT_VEHTYPE" speedFactor="0.93" vaporized=""/>
    <tripinfo id="119" depart="179.00" departLane="23185856#0_0" departPos="5.10" departSpeed="0.00" departDelay="0.50" arrival="329.00" arrivalLane="615271741_0" arrivalPos="69.70" arrivalSpeed="8.39" duration="150.00" routeLength="1428.03" waitingTime="0.00" waitingCount="0" stopTime="0.00" timeLoss="21.47" rerouteNo="0" devices="tripinfo_119" vType="DEFAULT_VEHTYPE" speedFactor="1.07" vaporized=""/>
    <tripinfo id="91" depart="137.00" departLane="53194748#1_0" departPos="5.10" departSpeed="0.00" departDelay="0.50" arrival="337.00" arrivalLane="-475479116#1_0" arrivalPos="1.14" arrivalSpeed="12.03" duration="200.00" routeLength="1448.07" waitingTime="42.00" waitingCount="1" stopTime="0.00" timeLoss="68.59" rerouteNo="0" devices="tripinfo_91" vType="DEFAULT_VEHTYPE" speedFactor="0.89" vaporized=""/>
    <tripinfo id="66" depart="99.00" departLane="-249492804#1_0" departPos="5.10" departSpeed="0.00" departDelay="0.00" arrival="340.00" arrivalLane="1121959022#1_0" arrivalPos="17.81" arrivalSpeed="9.46" duration="241.00" routeLength="1432.79" waitingTime="98.00" waitingCount="4" stopTime="0.00" timeLoss="130.84" rerouteNo="0" devices="tripinfo_66" vType="DEFAULT_VEHTYPE" speedFactor="0.91" vaporized=""/>
    <tripinfo id="72" depart="108.00" departLane="24791500#14_0" departPos="5.10" departSpeed="0.00" departDelay="0.00" arrival="340.00" arrivalLane="391086652#4_0" arrivalPos="86.18" arrivalSpeed="6.93" duration="232.00" routeLength="1837.95" waitingTime="57.00" waitingCount="2" stopTime="0.00" timeLoss="88.56" rerouteNo="0" devices="tripinfo_72" vType="DEFAULT_VEHTYPE" speedFactor="0.94" vaporized=""/>
    <tripinfo id="85" depart="128.00" departLane="51193425#11_0" departPos="5.10" departSpeed="0.00" departDelay="0.50" arrival="364.00" arrivalLane="-390001790#13_0" arrivalPos="3.71" arrivalSpeed="5.70" duration="236.00" routeLength="1634.25" waitingTime="98.00" waitingCount="3" stopTime="0.00" timeLoss="129.89" rerouteNo="0" devices="tripinfo_85" vType="DEFAULT_VEHTYPE" speedFactor="0.98" vaporized=""/>
    <tripinfo id="98" depart="147.00" departLane="816466882#1_0" departPos="5.10" departSpeed="0.00" departDelay="0.00" arrival="364.00" arrivalLane="584931622_0" arrivalPos="38.08" arrivalSpeed="8.96" duration="217.00" routeLength="1657.14" waitingTime="43.00" waitingCount="4" stopTime="0.00" timeLoss="102.72" rerouteNo="0" devices="tripinfo_98" vType="DEFAULT_VEHTYPE" speedFactor="1.12" vaporized=""/>
    <tripinfo id="69" depart="104.00" departLane="131497266#6_0" departPos="5.10" departSpeed="0.00" departDelay="0.50" arrival="366.00" arrivalLane="202505076#1_0" arrivalPos="63.84" arrivalSpeed="7.53" duration="262.00" routeLength="2677.61" waitingTime="0.00" waitingCount="0" stopTime="0.00" timeLoss="25.14" rerouteNo="0" devices="tripinfo_69" vType="DEFAULT_VEHTYPE" speedFactor="1.02" vaporized=""/>
    <tripinfo id="115" depart="173.00" departLane="-48730297#2_0" departPos="5.10" departSpeed="0.00" departDelay="0.50" arrival="369.00" arrivalLane="-345487965_0" arrivalPos="56.20" arrivalSpeed="6.97" duration="196.00" routeLength="1468.53" waitingTime="40.00" waitingCount="1" stopTime="0.00" timeLoss="67.42" rerouteNo="0" devices="tripinfo_115" vType="DEFAULT_VEHTYPE" speedFactor="0.92" vaporized=""/>
    <tripinfo id="106" depart="159.00" departLane="309708096#10_0" departPos="5.10" departSpeed="0.00" departDelay="0.00" arrival="371.00" arrivalLane="390001790#15_0" arrivalPos="30.41" arrivalSpeed="13.00" duration="212.00" routeLength="2283.86" waitingTime="24.00" waitingCount="2" stopTime="0.00" timeLoss="69.38" rerouteNo="0" devices="tripinfo_106" vType="DEFAULT_VEHTYPE" speedFactor="1.01" vaporized=""/>
    <tripinfo id="114" depart="171.00" departLane="345487680#1_0" departPos="5.10" departSpeed="0.00" departDelay="0.00" arrival="374.00" arrivalLane="370326667#11_0" arrivalPos="20.37" arrivalSpeed="9.10" duration="203.00" routeLength="2090.00" waitingTime="37.00" waitingCount="1" stopTime="0.00" timeLoss="75.31" rerouteNo="0" devices="tripinfo_114" vType="DEFAULT_VEHTYPE" speedFactor="1.10" vaporized=""/>
    <tripinfo id="131" depart="197.00" departLane="34698627#1_0" departPos="5.10" departSpeed="0.00" departDelay="0.50" arrival="375.00" arrivalLane="927366361#1_0" arrivalPos="29.35" arrivalSpeed="8.24" duration="178.00" routeLength="1890.75" waitingTime="0.00" waitingCount="0" stopTime="0.00" timeLoss="19.87" rerouteNo="0" devices="tripinfo_131" vType="DEFAULT_VEHTYPE" speedFactor="1.07" vaporized=""/>
    <tripinfo id="83" depart="125.00" departLane="557373224_0" departPos="5.10" departSpeed="0.00" departDelay="0.50" arrival="377.00" arrivalLane="235976579#1_0" arrivalPos="67.86" arrivalSpeed="14.98" duration="252.00" routeLength="1560.49" waitingTime="118.00" waitingCount="3" stopTime="0.00" timeLoss="148.99" rerouteNo="0" devices="tripinfo_83" vType="DEFAULT_VEHTYPE" speedFactor="0.97" vaporized=""/>
    <tripinfo id="210" depart="315.00" departLane="475478882_0" departPos="5.10" departSpeed="0.00" departDelay="0.00" arrival="379.00" arrivalLane="475479116#2_0" arrivalPos="45.81" arrivalSpeed="13.60" duration="64.00" routeLength="526.73" waitingTime="0.00" waitingCount="0" stopTime="0.00" timeLoss="14.78" rerouteNo="0" devices="tripinfo_210" vType="DEFAULT_VEHTYPE" speedFactor="1.10" vaporized=""/>
    <tripinfo id="47" depart="71.00" departLane="98963849#2_0" departPos="5.10" departSpeed="0.00" departDelay="0.50" arrival="380.00" arrivalLane="180781634#2_0" arrivalPos="30.58" arrivalSpeed="6.20" duration="309.00" routeLength="2473.34" waitingTime="9.00" waitingCount="1" stopTime="0.00" timeLoss="55.51" rerouteNo="0" devices="tripinfo_47" vType="DEFAULT_VEHTYPE" speedFactor="0.90" vaporized=""/>
    <tripinfo id="41" depart="62.00" departLane="-795103821#1_0" departPos="5.10" departSpeed="0.00" departDelay="0.50" arrival="381.00" arrivalLane="-395051016#26_0" arrivalPos="2.50" arrivalSpeed="10.41" duration="319.00" routeLength="2607.46" waitingTime="42.00" waitingCount="1" stopTime="0.00" timeLoss="91.19" rerouteNo="0" devices="tripinfo_41" vType="DEFAULT_VEHTYPE" speedFactor="0.96" vaporized=""/>
    <tripinfo id="176" depart="264.00" departLane="405513750_0" departPos="5.10" departSpeed="0.00" departDelay="0.00" arrival="382.00" arrivalLane="-522102302_0" arrivalPos="53.99" arrivalSpeed="2.88" duration="118.00" routeLength="753.03" waitingTime="4.00" waitingCount="1" stopTime="0.00" timeLoss="25.52" rerouteNo="0" devices="tripinfo_176" vType="DEFAULT_VEHTYPE" speedFactor="1.09" vaporized=""/>
    <tripinfo id="52" depart="78.00" departLane="-345487680#0_0" departPos="5.10" departSpeed="0.00" departDelay="0.00" arrival="383.00" arrivalLane="-747180569#4_0" arrivalPos="0.20" arrivalSpeed="10.53" duration="305.00" routeLength="3399.94" waitingTime="33.00" waitingCount="3" stopTime="0.00" timeLoss="97.00" rerouteNo="0" devices="tripinfo_52" vType="DEFAULT_VEHTYPE" speedFactor="1.02" vaporized=""/>
    <tripinfo id="76" depart="114.00" departLane="-346326711#19_0" departPos="5.10" departSpeed="0.00" departDelay="0.00" arrival="383.00" arrivalLane="-396540018_0" arrivalPos="86.36" arrivalSpeed="8.07" duration="269.00" routeLength="1920.07" waitingTime="90.00" waitingCount="2" stopTime="0.00" timeLoss="118.44" rerouteNo="0" devices="tripinfo_76" vType="DEFAULT_VEHTYPE" speedFactor="1.03" vaporized=""/>
    <tripinfo id="138" depart="207.00" departLane="395051016#19_0" departPos="5.10" departSpeed="0.00" departDelay="0.00" arrival="384.00" arrivalLane="-391086655#0_0" arrivalPos="7.40" arrivalSpeed="7.50" duration="177.00" routeLength="1697.73" waitingTime="0.00" waitingCount="0" stopTime="0.00" timeLoss="14.86" rerouteNo="0" devices="tripinfo_138" vType="DEFAULT_VEHTYPE" speedFactor="1.00" vaporized=""/>
    <tripinfo id="116" depart="174.00" departLane="54225115#0_0" departPos="5.10" departSpeed="0.00" departDelay="0.00" arrival="388.00" arrivalLane="-475478809#3_0" arrivalPos="21.97" arrivalSpeed="2.43" duration="214.00" routeLength="1660.12" waitingTime="0.00" waitingCount="0" stopTime="0.00" timeLoss="30.02" rerouteNo="0" devices="tripinfo_116" vType="DEFAULT_VEHTYPE" speedFactor="1.18" vaporized=""/>
    <tripinfo id="37" depart="56.00" departLane="547501531#0_0" departPos="5.10" departSpeed="0.00" departDelay="0.50" arrival="389.00" arrivalLane="1082246898_0" arrivalPos="41.48" arrivalSpeed="8.89" duration="333.00" routeLength="3492.56" waitingTime="0.00" waitingCount="0" stopTime="0.00" timeLoss="73.26" rerouteNo="0" devices="tripinfo_37" vType="DEFAULT_VEHTYPE" speedFactor="1.18" vaporized=""/>
    <tripinfo id="68" depart="102.00" departLane="48730394_0" departPos="5.10" departSpeed="0.00" departDelay="0.00" arrival="389.00" arrivalLane="-346331469#1_0" arrivalPos="147.72" arrivalSpeed="10.58" duration="287.00" routeLength="2631.91" waitingTime="56.00" waitingCount="3" stopTime="0.00" timeLoss="95.71" rerouteNo="0" devices="tripinfo_68" vType="DEFAULT_VEHTYPE" speedFactor="1.04" vaporized=""/>
    <tripinfo id="139" depart="212.00" departLane="356689199#2_0" departPos="5.10" departSpeed="0.00" departDelay="3.50" arrival="391.00" arrivalLane="-48810533#0_0" arrivalPos="227.29" arrivalSpeed="9.65" duration="179.00" routeLength="1670.30" waitingTime="2.00" waitingCount="1" stopTime="0.00" timeLoss="30.07" rerouteNo="0" devices="tripinfo_139" vType="DEFAULT_VEHTYPE" speedFactor="0.95" vaporized=""/>
    <tripinfo id="181" depart="272.00" departLane="24791500#11_0" departPos="5.10" departSpeed="0.00" departDelay="0.50" arrival="392.00" arrivalLane="390001790#3_0" arrivalPos="1.88" arrivalSpeed="13.20" duration="120.00" routeLength="1153.75" waitingTime="23.00" waitingCount="1" stopTime="0.00" timeLoss="41.45" rerouteNo="0" devices="tripinfo_181" vType="DEFAULT_VEHTYPE" speedFactor="1.03" vaporized=""/>
    <tripinfo id="149" depart="224.00" departLane="-370326667#3_0" departPos="5.10" departSpeed="0.00" departDelay="0.50" arrival="393.00" arrivalLane="-346326711#7_0" arrivalPos="1.49" arrivalSpeed="10.41" duration="169.00" routeLength="1956.38" waitingTime="0.00" waitingCount="0" stopTime="0.00" timeLoss="19.99" rerouteNo="0" devices="tripinfo_149" vType="DEFAULT_VEHTYPE" speedFactor="1.04" vaporized=""/>
    <tripinfo id="80" depart="120.00" departLane="53194746_0" departPos="5.10" departSpeed="0.00" departDelay="0.00" arrival="394.00" arrivalLane="-232726953_0" arrivalPos="17.52" arrivalSpeed="8.61" duration="274.00" routeLength="2921.71" waitingTime="55.00" waitingCount="2" stopTime="0.00" timeLoss="95.40" rerouteNo="0" devices="tripinfo_80" vType="DEFAULT_VEHTYPE" speedFactor="1.03" vaporized=""/>
    <tripinfo id="20" depart="30.00" departLane="-475478809#3_0" departPos="5.10" departSpeed="0.00" departDelay="0.00" arrival="397.00" arrivalLane="-508770366#4_0" arrivalPos="102.45" arrivalSpeed="13.92" duration="367.00" routeLength="2921.37" waitingTime="0.00" waitingCount="0" stopTime="0.00" timeLoss="42.73" rerouteNo="0" devices="tripinfo_20" vType="DEFAULT_VEHTYPE" speedFactor="1.02" vaporized=""/>
    <tripinfo id="95" depart="143.00" departLane="1117294943_0" departPos="0.20" departSpeed="0.00" departDelay="0.50" arrival="401.00" arrivalLane="53194747#1_0" arrivalPos="84.82" arrivalSpeed="8.07" duration="258.00" routeLength="2119.53" waitingTime="64.00" waitingCount="3" stopTime="0.00" timeLoss="107.63" rerouteNo="0" devices="tripinfo_95" vType="DEFAULT_VEHTYPE" speedFactor="1.06" vaporized=""/>
    <tripinfo id="60" depart="90.00" departLane="496284250_0" departPos="5.10" departSpeed="0.00" departDelay="0.00" arrival="404.00" arrivalLane="180781637#0_0" arrivalPos="133.28" arrivalSpeed="7.80" duration="314.00" routeLength="2626.66" waitingTime="58.00" waitingCount="3" stopTime="0.00" timeLoss="109.25" rerouteNo="0" devices="tripinfo_60" vType="DEFAULT_VEHTYPE" speedFactor="1.08" vaporized=""/>
    <tripinfo id="27" depart="41.00" departLane="-385957470#2_0" departPos="5.10" departSpeed="0.00" departDelay="0.50" arrival="406.00" arrivalLane="391086652#0_0" arrivalPos="19.60" arrivalSpeed="7.51" duration="365.00" routeLength="1826.24" waitingTime="196.00" waitingCount="3" stopTime="0.00" timeLoss="233.43" rerouteNo="0" devices="tripinfo_27" vType="DEFAULT_VEHTYPE" speedFactor="0.95" vaporized=""/>
    <tripinfo id="42" depart="63.00" departLane="98963861_0" departPos="5.10" departSpeed="0.00" departDelay="0.00" arrival="408.00" arrivalLane="1300916287_0" arrivalPos="287.32" arrivalSpeed="14.07" duration="345.00" routeLength="2856.89" waitingTime="90.00" waitingCount="3" stopTime="0.00" timeLoss="126.85" rerouteNo="0" devices="tripinfo_42" vType="DEFAULT_VEHTYPE" speedFactor="1.09" vaporized=""/>
    <tripinfo id="79" depart="119.00" departLane="-475478809#7_0" departPos="5.10" departSpeed="0.00" departDelay="0.50" arrival="411.00" arrivalLane="547501534_0" arrivalPos="92.92" arrivalSpeed="2.20" duration="292.00" routeLength="2003.83" waitingTime="0.00" waitingCount="0" stopTime="0.00" timeLoss="37.77" rerouteNo="0" devices="tripinfo_79" vType="DEFAULT_VEHTYPE" speedFactor="1.09" vaporized=""/>
    <tripinfo id="167" depart="251.00" departLane="-1299286352_0" departPos="5.10" departSpeed="0.00" departDelay="0.50" arrival="415.00" arrivalLane="-390001790#8_0" arrivalPos="10.34" arrivalSpeed="6.82" duration="164.00" routeLength="1431.87" waitingTime="39.00" waitingCount="2" stopTime="0.00" timeLoss="69.79" rerouteNo="0" devices="tripinfo_167" vType="DEFAULT_VEHTYPE" speedFactor="1.03" vaporized=""/>
    <tripinfo id="75" depart="113.00" departLane="1117294926_0" departPos="5.10" departSpeed="0.00" departDelay="0.50" arrival="416.00" arrivalLane="134641870#0_0" arrivalPos="23.75" arrivalSpeed="8.14" duration="303.00" routeLength="1839.98" waitingTime="96.00" waitingCount="2" stopTime="0.00" timeLoss="135.88" rerouteNo="0" devices="tripinfo_75" vType="DEFAULT_VEHTYPE" speedFactor="0.98" vaporized=""/>
    <tripinfo id="45" depart="68.00" departLane="50633780#1_0" departPos="5.10" departSpeed="0.00" departDelay="0.50" arrival="424.00" arrivalLane="-615271746_0" arrivalPos="113.20" arrivalSpeed="8.55" duration="356.00" routeLength="2330.20" waitingTime="133.00" waitingCount="5" stopTime="0.00" timeLoss="185.75" rerouteNo="0" devices="tripinfo_45" vType="DEFAULT_VEHTYPE" speedFactor="1.09" vaporized=""/>
    <tripinfo id="159" depart="239.00" departLane="-54225339#1_0" departPos="5.10" departSpeed="0.00" departDelay="0.50" arrival="425.00" arrivalLane="591870188#1_0" arrivalPos="14.78" arrivalSpeed="12.79" duration="186.00" routeLength="1842.83" waitingTime="1.00" waitingCount="1" stopTime="0.00" timeLoss="28.03" rerouteNo="0" devices="tripinfo_159" vType="DEFAULT_VEHTYPE" speedFactor="1.14" vaporized=""/>
    <tripinfo id="170" depart="255.00" departLane="370326667#2_0" departPos="5.10" departSpeed="0.00" departDelay="0.00" arrival="434.00" arrivalLane="-553270737_0" arrivalPos="81.17" arrivalSpeed="2.80" duration="179.00" routeLength="1876.80" waitingTime="0.00" waitingCount="0" stopTime="0.00" timeLoss="20.87" rerouteNo="0" devices="tripinfo_170" vType="DEFAULT_VEHTYPE" speedFactor="1.09" vaporized=""/>
    <tripinfo id="136" depart="204.00" departLane="-343119763#0_0" departPos="0.20" departSpeed="0.00" departDelay="0.00" arrival="436.00" arrivalLane="228885209_0" arrivalPos="25.85" arrivalSpeed="11.87" duration="232.00" routeLength="2281.10" waitingTime="42.00" waitingCount="3" stopTime="0.00" timeLoss="93.01" rerouteNo="0" devices="tripinfo_136" vType="DEFAULT_VEHTYPE" speedFactor="1.12" vaporized=""/>