<?xml version="1.0" encoding="UTF-8"?>

<!-- generated on 2026-01-24T11:15:58.935790+05:30 by Eclipse SUMO GUI 1.25.0
<sumoConfiguration xmlns:xsi="http://www.w3.org/2001/XMLSchema-instance" xsi:noNamespaceSchemaLocation="http://sumo.dlr.de/xsd/sumoConfiguration.xsd">

    <input>
        <net-file value="simulation_map.net.xml"/>
        <route-files value="simulation_map.rou.xml"/>
    </input>

    <output>
        <tripinfo-output value="tripinfo_fixed.xml"/>
    </output>

    <time>
        <begin value="0"/>
        <end value="3600"/>
    </time>

    <traci_server>
        <remote-port value="55503"/>
    </traci_server>

</sumoConfiguration>
-->

<tripinfos xmlns:xsi="http://www.w3.org/2001/XMLSchema-instance" xsi:noNamespaceSchemaLocation="http://sumo.dlr.de/xsd/tripinfo_file.xsd">
    <tripinfo id="0" depart="0.00" departLane="368807686#2_0" departPos="5.10" departSpeed="0.00" departDelay="0.00" arrival="68.00" arrivalLane="-131497266#0_0" arrivalPos="91.67" arrivalSpeed="13.88" duration="68.00" routeLength="863.15" waitingTime="0.00" waitingCount="0" stopTime="0.00" timeLoss="7.87" rerouteNo="0" devices="tripinfo_0" vType="DEFAULT_VEHTYPE" speedFactor="1.06" vaporized=""/>
    <tripinfo id="22" depart="33.00" departLane="-313323574_0" departPos="5.10" departSpeed="0.00" departDelay="0.00" arrival="125.00" arrivalLane="-50633775#0_0" arrivalPos="9.57" arrivalSpeed="7.71" duration="92.00" routeLength="681.20" waitingTime="0.00" waitingCount="0" stopTime="0.00" timeLoss="10.71" rerouteNo="0" devices="tripinfo_22" vType="DEFAULT_VEHTYPE" speedFactor="0.97" vaporized=""/>
    <tripinfo id="28" depart="42.00" departLane="-377061441_0" departPos="5.10" departSpeed="0.00" departDelay="0.00" arrival="128.00" arrivalLane="-54225362#0_0" arrivalPos="145.78" arrivalSpeed="9.39" duration="86.00" routeLength="719.84" waitingTime="0.00" waitingCount="0" stopTime="0.00" timeLoss="8.49" rerouteNo="0" devices="tripinfo_28" vType="DEFAULT_VEHTYPE" speedFactor="1.13" vaporized=""/>
    <tripinfo id="40" depart="60.00" departLane="343119763#10_0" departPos="5.10" departSpeed="0.00" departDelay="0.00" arrival="145.00" arrivalLane="54225363#1_0" arrivalPos="37.41" arrivalSpeed="8.19" duration="85.00" routeLength="724.48" waitingTime="0.00" waitingCount="0" stopTime="0.00" timeLoss="9.53" rerouteNo="0" devices="tripinfo_40" vType="DEFAULT_VEHTYPE" speedFactor="1.03" vaporized=""/>
    <tripinfo id="67" depart="101.00" departLane="-23185856#4_0" departPos="5.10" departSpeed="0.00" departDelay="0.50" arrival="202.00" arrivalLane="448192239_0" arrivalPos="72.80" arrivalSpeed="6.85" duration="101.00" routeLength="680.84" waitingTime="0.00" waitingCount="0" stopTime="0.00" timeLoss="14.58" rerouteNo="0" devices="tripinfo_67" vType="DEFAULT_VEHTYPE" speedFactor="0.91" vaporized=""/>
    <tripinfo id="96" depart="144.00" departLane="308900303#0_0" departPos="5.10" departSpeed="0.00" departDelay="0.00" arrival="206.00" arrivalLane="-199438208_0" arrivalPos="38.53" arrivalSpeed="7.55" duration="62.00" routeLength="597.48" waitingTime="0.00" waitingCount="0" stopTime="0.00" timeLoss="7.30" rerouteNo="0" devices="tripinfo_96" vType="DEFAULT_VEHTYPE" speedFactor="1.01" vaporized=""/>
    <tripinfo id="55" depart="83.00" departLane="199430408#0_0" departPos="5.10" departSpeed="0.00" departDelay="0.50" arrival="245.00" arrivalLane="-385959106_0" arrivalPos="61.16" arrivalSpeed="7.80" duration="162.00" routeLength="1054.55" waitingTime="26.00" waitingCount="1" stopTime="0.00" timeLoss="46.69" rerouteNo="0" devices="tripinfo_55" vType="DEFAULT_VEHTYPE" speedFactor="1.00" vaporized=""/>
    <tripinfo id="118" depart="177.00" departLane="1046132372#2_0" departPos="5.10" departSpeed="0.00" departDelay="0.00" arrival="249.00" arrivalLane="25293162_0" arrivalPos="106.94" arrivalSpeed="13.23" duration="72.00" routeLength="916.69" waitingTime="0.00" waitingCount="0" stopTime="0.00" timeLoss="14.71" rerouteNo="0" devices="tripinfo_118" vType="DEFAULT_VEHTYPE" speedFactor="0.99" vaporized=""/>
    <tripinfo id="133" depart="200.00" departLane="518230025_0" departPos="5.10" departSpeed="0.00" departDelay="0.50" arrival="253.00" arrivalLane="-518227696_0" arrivalPos="38.03" arrivalSpeed="8.40" duration="53.00" routeLength="366.72" waitingTime="0.00" waitingCount="0" stopTime="0.00" timeLoss="8.97" rerouteNo="0" devices="tripinfo_133" vType="DEFAULT_VEHTYPE" speedFactor="1.04" vaporized=""/>
    <tripinfo id="94" depart="141.00" departLane="-50633740#1_0" departPos="5.10" departSpeed="0.00" departDelay="0.00" arrival="254.00" arrivalLane="573824328_0" arrivalPos="66.71" arrivalSpeed="14.61" duration="113.00" routeLength="931.88" waitingTime="0.00" waitingCount="0" stopTime="0.00" timeLoss="12.50" rerouteNo="0" devices="tripinfo_94" vType="DEFAULT_VEHTYPE" speedFactor="1.09" vaporized=""/>
    <tripinfo id="113" depart="170.00" departLane="-233596653_0" departPos="5.10" departSpeed="0.00" departDelay="0.50" arrival="265.00" arrivalLane="-389274955#18_0" arrivalPos="24.30" arrivalSpeed="11.54" duration="95.00" routeLength="522.30" waitingTime="40.00" waitingCount="1" stopTime="0.00" timeLoss="56.21" rerouteNo="0" devices="tripinfo_113" vType="DEFAULT_VEHTYPE" speedFactor="1.01" vaporized=""/>
    <tripinfo id="120" depart="180.00" departLane="-391271250#1_0" departPos="5.10" departSpeed="0.00" departDelay="0.00" arrival="277.00" arrivalLane="389274955#8_0" arrivalPos="48.15" arrivalSpeed="15.08" duration="97.00" routeLength="898.30" waitingTime="9.00" waitingCount="1" stopTime="0.00" timeLoss="30.01" rerouteNo="0" devices="tripinfo_120" vType="DEFAULT_VEHTYPE" speedFactor="0.94" vaporized=""/>
    <tripinfo id="33" depart="50.00" departLane="-53273640#0_0" departPos="5.10" departSpeed="0.00" departDelay="0.50" arrival="278.00" arrivalLane="-496284252_0" arrivalPos="40.38" arrivalSpeed="2.43" duration="228.00" routeLength="1990.72" waitingTime="24.00" waitingCount="1" stopTime="0.00" timeLoss="61.03" rerouteNo="0" devices="tripinfo_33" vType="DEFAULT_VEHTYPE" speedFactor="1.17" vaporized=""/>
    <tripinfo id="108" depart="162.00" departLane="8111675_0" departPos="5.10" departSpeed="0.00" departDelay="0.00" arrival="279.00" arrivalLane="24791500#11_1" arrivalPos="145.89" arrivalSpeed="10.17" duration="117.00" routeLength="1028.79" waitingTime="12.00" waitingCount="1" stopTime="0.00" timeLoss="34.92" rerouteNo="0" devices="tripinfo_108" vType="DEFAULT_VEHTYPE" speedFactor="1.06" vaporized=""/>
    <tripinfo id="57" depart="86.00" departLane="-53194744#0_0" departPos="5.10" departSpeed="0.00" departDelay="0.50" arrival="290.00" arrivalLane="346326711#22_0" arrivalPos="88.31" arrivalSpeed="12.39" duration="204.00" routeLength="1917.36" waitingTime="33.00" waitingCount="1" stopTime="0.00" timeLoss="62.57" rerouteNo="0" devices="tripinfo_57" vType="DEFAULT_VEHTYPE" speedFactor="1.14" vaporized=""/>
    <tripinfo id="154" depart="231.00" departLane="-897245148#0_0" departPos="5.10" departSpeed="0.00" departDelay="0.00" arrival="292.00" arrivalLane="343119763#9_0" arrivalPos="143.36" arrivalSpeed="14.65" duration="61.00" routeLength="721.60" waitingTime="0.00" waitingCount="0" stopTime="0.00" timeLoss="8.88" rerouteNo="0" devices="tripinfo_154" vType="DEFAULT_VEHTYPE" speedFactor="1.06" vaporized=""/>
    <tripinfo id="23" depart="35.00" departLane="360011380#3_0" departPos="0.20" departSpeed="0.00" departDelay="0.50" arrival="294.00" arrivalLane="-54225112_0" arrivalPos="163.68" arrivalSpeed="6.55" duration="259.00" routeLength="674.91" waitingTime="160.00" waitingCount="2" stopTime="0.00" timeLoss="180.81" rerouteNo="0" devices="tripinfo_23" vType="DEFAULT_VEHTYPE" speedFactor="0.89" vaporized=""/>
    <tripinfo id="77" depart="116.00" departLane="-475479116#1_0" departPos="1.14" departSpeed="0.00" departDelay="0.50" arrival="303.00" arrivalLane="-395051016#3_0" arrivalPos="51.36" arrivalSpeed="10.36" duration="187.00" routeLength="1854.30" waitingTime="0.00" waitingCount="0" stopTime="0.00" timeLoss="16.50" rerouteNo="0" devices="tripinfo_77" vType="DEFAULT_VEHTYPE" speedFactor="0.98" vaporized=""/>
    <tripinfo id="126" depart="189.00" departLane="-233499011#12_0" departPos="5.10" departSpeed="0.00" departDelay="0.00" arrival="306.00" arrivalLane="-391272225#3_0" arrivalPos="24.20" arrivalSpeed="9.27" duration="117.00" routeLength="1064.98" waitingTime="15.00" waitingCount="1" stopTime="0.00" timeLoss="37.68" rerouteNo="0" devices="tripinfo_126" vType="DEFAULT_VEHTYPE" speedFactor="1.03" vaporized=""/>
    <tripinfo id="34" depart="51.00" departLane="-395051016#25_0" departPos="5.10" departSpeed="0.00" departDelay="0.00" arrival="308.00" arrivalLane="687607144_0" arrivalPos="211.96" arrivalSpeed="13.56" duration="257.00" routeLength="2444.64" waitingTime="0.00" waitingCount="0" stopTime="0.00" timeLoss="30.11" rerouteNo="0" devices="tripinfo_34" vType="DEFAULT_VEHTYPE" speedFactor="0.99" vaporized=""/>
    <tripinfo id="42" depart="63.00" departLane="98963861_0" departPos="5.10" departSpeed="0.00" departDelay="0.00" arrival="336.00" arrivalLane="1300916287_0" arrivalPos="287.32" arrivalSpeed="15.10" duration="273.00" routeLength="2856.89" waitingTime="23.00" waitingCount="2" stopTime="0.00" timeLoss="55.22" rerouteNo="0" devices="tripinfo_42" vType="DEFAULT_VEHTYPE" speedFactor="1.09" vaporized=""/>
    <tripinfo id="128" depart="192.00" departLane="53273641_0" departPos="5.10" departSpeed="0.00" departDelay="0.00" arrival="338.00" arrivalLane="53789480#1_0" arrivalPos="16.53" arrivalSpeed="8.76" duration="146.00" routeLength="1046.35" waitingTime="37.00" waitingCount="1" stopTime="0.00" timeLoss="58.59" rerouteNo="0" devices="tripinfo_128" vType="DEFAULT_VEHTYPE" speedFactor="1.12" vaporized=""/>
    <tripinfo id="97" depart="146.00" departLane="98963910#2-AddedOffRampEdge_0" departPos="5.10" departSpeed="0.00" departDelay="0.50" arrival="365.00" arrivalLane="51911938#7_1" arrivalPos="3.18" arrivalSpeed="14.34" duration="219.00" routeLength="1763.16" waitingTime="72.00" waitingCount="3" stopTime="0.00" timeLoss="100.34" rerouteNo="0" devices="tripinfo_97" vType="DEFAULT_VEHTYPE" speedFactor="0.91" vaporized=""/>
    <tripinfo id="69" depart="104.00" departLane="131497266#6_0" departPos="5.10" departSpeed="0.00" departDelay="0.50" arrival="366.00" arrivalLane="202505076#1_0" arrivalPos="63.84" arrivalSpeed="8.01" duration="262.00" routeLength="2677.61" waitingTime="0.00" waitingCount="0" stopTime="0.00" timeLoss="25.13" rerouteNo="0" devices="tripinfo_69" vType="DEFAULT_VEHTYPE" speedFactor="1.02" vaporized=""/>
    <tripinfo id="131" depart="197.00" departLane="34698627#1_0" departPos="5.10" departSpeed="0.00" departDelay="0.50" arrival="375.00" arrivalLane="927366361#1_0" arrivalPos="29.35" arrivalSpeed="7.68" duration="178.00" routeLength="1890.75" waitingTime="0.00" waitingCount="0" stopTime="0.00" timeLoss="19.67" rerouteNo="0" devices="tripinfo_131" vType="DEFAULT_VEHTYPE" speedFactor="1.07" vaporized=""/>
    <tripinfo id="176" depart="264.00" departLane="405513750_0" departPos="5.10" departSpeed="0.00" departDelay="0.00" arrival="377.00" arrivalLane="-522102302_0" arrivalPos="53.99" arrivalSpeed="2.91" duration="113.00" routeLength="753.03" waitingTime="0.00" waitingCount="0" stopTime="0.00" timeLoss="20.25" rerouteNo="0" devices="tripinfo_176" vType="DEFAULT_VEHTYPE" speedFactor="1.09" vaporized=""/>
    <tripinfo id="210" depart="315.00" departLane="475478882_0" departPos="5.10" departSpeed="0.00" departDelay="0.00" arrival="377.00" arrivalLane="475479116#2_0" arrivalPos="45.81" arrivalSpeed="14.19" duration="62.00" routeLength="526.73" waitingTime="0.00" waitingCount="0" stopTime="0.00" timeLoss="12.81" rerouteNo="0" devices="tripinfo_210" vType="DEFAULT_VEHTYPE" speedFactor="1.10" vaporized=""/>
    <tripinfo id="10" depart="15.00" departLane="-54225491#1_0" departPos="5.10" departSpeed="0.00" departDelay="0.00" arrival="380.00" arrivalLane="-371385310#2_0" arrivalPos="120.97" arrivalSpeed="8.50" duration="365.00" routeLength="2410.81" waitingTime="147.00" waitingCount="4" stopTime="0.00" timeLoss="194.62" rerouteNo="0" devices="tripinfo_10" vType="DEFAULT_VEHTYPE" speedFactor="1.09" vaporized=""/>
    <tripinfo id="139" depart="211.00" departLane="356689199#2_0" departPos="5.10" departSpeed="0.00" departDelay="2.50" arrival="381.00" arrivalLane="-48810533#0_0" arrivalPos="227.29" arrivalSpeed="10.17" duration="170.00" routeLength="1670.30" waitingTime="0.00" waitingCount="0" stopTime="0.00" timeLoss="22.21" rerouteNo="0" devices="tripinfo_139" vType="DEFAULT_VEHTYPE" speedFactor="0.95" vaporized=""/>
    <tripinfo id="138" depart="207.00" departLane="395051016#19_0" departPos="5.10" departSpeed="0.00" departDelay="0.00" arrival="386.00" arrivalLane="-391086655#0_0" arrivalPos="7.40" arrivalSpeed="8.21" duration="179.00" routeLength="1697.73" waitingTime="0.00" waitingCount="0" stopTime="0.00" timeLoss="16.30" rerouteNo="0" devices="tripinfo_138" vType="DEFAULT_VEHTYPE" speedFactor="1.00" vaporized=""/>
    <tripinfo id="119" depart="179.00" departLane="23185856#0_0" departPos="5.10" departSpeed="0.00" departDelay="0.50" arrival="390.00" arrivalLane="615271741_0" arrivalPos="69.70" arrivalSpeed="8.07" duration="211.00" routeLength="1428.03" waitingTime="53.00" waitingCount="1" stopTime="0.00" timeLoss="82.17" rerouteNo="0" devices="tripinfo_119" vType="DEFAULT_VEHTYPE" speedFactor="1.07" vaporized=""/>
    <tripinfo id="116" depart="174.00" departLane="54225115#0_0" departPos="5.10" departSpeed="0.00" departDelay="0.00" arrival="391.00" arrivalLane="-475478809#3_0" arrivalPos="21.97" arrivalSpeed="3.13" duration="217.00" routeLength="1660.12" waitingTime="0.00" waitingCount="0" stopTime="0.00" timeLoss="33.12" rerouteNo="0" devices="tripinfo_116" vType="DEFAULT_VEHTYPE" speedFactor="1.18" vaporized=""/>
    <tripinfo id="149" depart="224.00" departLane="-370326667#3_0" departPos="5.10" departSpeed="0.00" departDelay="0.50" arrival="392.00" arrivalLane="-346326711#7_0" arrivalPos="1.49" arrivalSpeed="10.18" duration="168.00" routeLength="1956.38" waitingTime="0.00" waitingCount="0" stopTime="0.00" timeLoss="18.51" rerouteNo="0" devices="tripinfo_149" vType="DEFAULT_VEHTYPE" speedFactor="1.04" vaporized=""/>
    <tripinfo id="20" depart="30.00" departLane="-475478809#3_0" departPos="5.10" departSpeed="0.00" departDelay="0.00" arrival="396.00" arrivalLane="-508770366#4_0" arrivalPos="102.45" arrivalSpeed="13.50" duration="366.00" routeLength="2921.37" waitingTime="0.00" waitingCount="0" stopTime="0.00" timeLoss="41.93" rerouteNo="0" devices="tripinfo_20" vType="DEFAULT_VEHTYPE" speedFactor="1.02" vaporized=""/>
    <tripinfo id="50" depart="75.00" departLane="389274952#3_0" departPos="5.10" departSpeed="0.00" departDelay="0.00" arrival="400.00" arrivalLane="196287358_0" arrivalPos="70.01" arrivalSpeed="11.64" duration="325.00" routeLength="1040.95" waitingTime="215.00" waitingCount="4" stopTime="0.00" timeLoss="241.75" rerouteNo="0" devices="tripinfo_50" vType="DEFAULT_VEHTYPE" speedFactor="0.85" vaporized=""/>
    <tripinfo id="79" depart="119.00" departLane="-475478809#7_0" departPos="5.10" departSpeed="0.00" departDelay="0.50" arrival="414.00" arrivalLane="547501534_0" arrivalPos="92.92" arrivalSpeed="2.11" duration="295.00" routeLength="2003.83" waitingTime="0.00" waitingCount="0" stopTime="0.00" timeLoss="40.58" rerouteNo="0" devices="tripinfo_79" vType="DEFAULT_VEHTYPE" speedFactor="1.09" vaporized=""/>
    <tripinfo id="159" depart="239.00" departLane="-54225339#1_0" departPos="5.10" departSpeed="0.00" departDelay="0.50" arrival="425.00" arrivalLane="591870188#1_0" arrivalPos="14.78" arrivalSpeed="13.28" duration="186.00" routeLength="1842.83" waitingTime="2.00" waitingCount="1" stopTime="0.00" timeLoss="27.05" rerouteNo="0" devices="tripinfo_159" vType="DEFAULT_VEHTYPE" speedFactor="1.14" vaporized=""/>
    <tripinfo id="66" depart="99.00" departLane="-249492804#1_0" departPos="5.10" departSpeed="0.00" departDelay="0.00" arrival="430.00" arrivalLane="1121959022#1_0" arrivalPos="17.81" arrivalSpeed="9.50" duration="331.00" routeLength="1432.79" waitingTime="190.00" waitingCount="4" stopTime="0.00" timeLoss="220.54" rerouteNo="0" devices="tripinfo_66" vType="DEFAULT_VEHTYPE" speedFactor="0.91" vaporized=""/>
    <tripinfo id="91" depart="137.00" departLane="53194748#1_0" departPos="5.10" departSpeed="0.00" departDelay="0.50" arrival="431.00" arrivalLane="-475479116#1_0" arrivalPos="1.14" arrivalSpeed="11.63" duration="294.00" routeLength="1448.07" waitingTime="137.00" waitingCount="1" stopTime="0.00" timeLoss="162.13" rerouteNo="0" devices="tripinfo_91" vType="DEFAULT_VEHTYPE" speedFactor="0.89" vaporized=""/>
    <tripinfo id="170" depart="255.00" departLane="370326667#2_0" departPos="5.10" departSpeed="0.00" departDelay="0.00" arrival="436.00" arrivalLane="-553270737_0" arrivalPos="81.17" arrivalSpeed="1.87" duration="181.00" routeLength="1876.80" waitingTime="0.00" waitingCount="0" stopTime="0.00" timeLoss="22.68" rerouteNo="0" devices="tripinfo_170" vType="DEFAULT_VEHTYPE" speedFactor="1.09" vaporized=""/>
    <tripinfo id="56" depart="84.00" departLane="54226223#4_0" departPos="5.10" departSpeed="0.00" departDelay="0.00" arrival="439.00" arrivalLane="53273626#4_0" arrivalPos="21.29" arrivalSpeed="6.22" duration="355.00" routeLength="3600.76" waitingTime="2.00" waitingCount="1" stopTime="0.00" timeLoss="37.59" rerouteNo="0" devices="tripinfo_56" vType="DEFAULT_VEHTYPE" speedFactor="0.90" vaporized=""/>
    <tripinfo id="181" depart="272.00" departLane="24791500#11_0" departPos="5.10" departSpeed="0.00" departDelay="0.50" arrival="442.00" arrivalLane="390001790#3_0" arrivalPos="1.88" arrivalSpeed="13.21" duration="170.00" routeLength="1153.75" waitingTime="65.00" waitingCount="2" stopTime="0.00" timeLoss="90.86" rerouteNo="0" devices="tripinfo_181" vType="DEFAULT_VEHTYPE" speedFactor="1.03" vaporized=""/>
    <tripinfo id="186" depart="279.00" departLane="395051016#29_0" departPos="5.10" departSpeed="0.00" departDelay="0.00" arrival="444.00" arrivalLane="-518230022_0" arrivalPos="45.56" arrivalSpeed="2.16" duration="165.00" routeLength="1297.93" waitingTime="0.00" waitingCount="0" stopTime="0.00" timeLoss="22.22" rerouteNo="0" devices="tripinfo_186" vType="DEFAULT_VEHTYPE" speedFactor="1.08" vaporized=""/>
    <tripinfo id="115" depart="173.00" departLane="-48730297#2_0" departPos="5.10" departSpeed="0.00" departDelay="0.50" arrival="456.00" arrivalLane="-345487965_0" arrivalPos="56.20" arrivalSpeed="7.60" duration="283.00" routeLength="1468.53" waitingTime="123.00" waitingCount="2" stopTime="0.00" timeLoss="155.12" rerouteNo="0" devices="tripinfo_115" vType="DEFAULT_VEHTYPE" speedFactor="0.92" vaporized=""/>
    <tripinfo id="129" depart="194.00" departLane="-591870188#1_0" departPos="5.10" departSpeed="0.00" departDelay="0.50" arrival="461.00" arrivalLane="-372780749#1_0" arrivalPos="30.25" arrivalSpeed="7.40" duration="267.00" routeLength="2380.40" waitingTime="0.00" waitingCount="0" stopTime="0.00" timeLoss="32.49" rerouteNo="0" devices="tripinfo_129" vType="DEFAULT_VEHTYPE" speedFactor="1.01" vaporized=""/>
    <tripinfo id="47" depart="71.00" departLane="98963849#2_0" departPos="5.10" departSpeed="0.00" departDelay="0.50" arrival="474.00" arrivalLane="180781634#2_0" arrivalPos="30.58" arrivalSpeed="6.33" duration="403.00" routeLength="2473.34" waitingTime="97.00" waitingCount="1" stopTime="0.00" timeLoss="149.30" rerouteNo="0" devices="tripinfo_47" vType="DEFAULT_VEHTYPE" speedFactor="0.90" vaporized=""/>
    <tripinfo id="226" depart="339.00" departLane="-233499011#9_0" departPos="5.10" departSpeed="0.00" departDelay="0.00" arrival="474.00" arrivalLane="-50634207#1_0" arrivalPos="37.08" arrivalSpeed="10.91" duration="135.00" routeLength="1064.75" waitingTime="40.00" waitingCount="1" stopTime="0.00" timeLoss="64.29" rerouteNo="0" devices="tripinfo_226" vType="DEFAULT_VEHTYPE" speedFactor="1.24" vaporized=""/>
    <tripinfo id="3" depart="5.00" departLane="1082246898_0" departPos="5.10" departSpeed="0.00" departDelay="0.50" arrival="478.00" arrivalLane="-134641872_0" arrivalPos="32.82" arrivalSpeed="8.03" duration="473.00" routeLength="2484.02" waitingTime="257.00" waitingCount="6" stopTime="0.00" timeLoss="322.59" rerouteNo="0" devices="tripinfo_3" vType="DEFAULT_VEHTYPE" speedFactor="1.08" vaporized=""/>
    <tripinfo id="37" depart="56.00" departLane="547501531#0_0" departPos="5.10" departSpeed="0.00" departDelay="0.50" arrival="483.00" arrivalLane="1082246898_0" arrivalPos="41.48" arrivalSpeed="9.20" duration="427.00" routeLength="3492.56" waitingTime="78.00" waitingCount="1" stopTime="0.00" timeLoss="165.74" rerouteNo="0" devices="tripinfo_37" vType="DEFAULT_VEHTYPE" speedFactor="1.18" vaporized=""/>
    <tripinfo id="61" depart="92.00" departLane="-1020253345#2_0" departPos="5.10" departSpeed="0.00" departDelay="0.50" arrival="500.00" arrivalLane="-53194199#1_0" arrivalPos="98.76" arrivalSpeed="8.24" duration="408.00" routeLength="3020.11" waitingTime="117.00" waitingCount="2" stopTime="0.00" timeLoss="170.52" rerouteNo="0" devices="tripinfo_61" vType="DEFAULT_VEHTYPE" speedFactor="1.12" vaporized=""/>
    <tripinfo id="88" depart="132.00" departLane="405513752#0_0" departPos="5.10" departSpeed="0.00" departDelay="0.00" arrival="500.00" arrivalLane="368807686#1_0" arrivalPos="14.44" arrivalSpeed="13.83" duration="368.00" routeLength="1215.61" waitingTime="203.00" waitingCount="5" stopTime="0.00" timeLoss="257.62" rerouteNo="0" devices="tripinfo_88" vType="DEFAULT_VEHTYPE" speedFactor="1.01" vaporized=""/>
    <tripinfo id="14" depart="21.00" departLane="51193425#10_0" departPos="5.10" departSpeed="0.00" departDelay="0.00" arrival="510.00" arrivalLane="391086652#3_0" arrivalPos="47.11" arrivalSpeed="7.07" duration="489.00" routeLength="1772.84" waitingTime="315.00" waitingCount="4" stopTime="0.00" timeLoss="363.02" rerouteNo="0" devices="tripinfo_14" vType="DEFAULT_VEHTYPE" speedFactor="0.99" vaporized=""/>
    <tripinfo id="167" depart="251.00" departLane="-1299286352_0" departPos="5.10" departSpeed="0.00" departDelay="0.50" arrival="510.00" arrivalLane="-390001790#8_0" arrivalPos="10.34" arrivalSpeed="6.22" duration="259.00" routeLength="1431.87" waitingTime="130.00" waitingCount="3" stopTime="0.00" timeLoss="164.65" rerouteNo="0" devices="tripinfo_167" vType="DEFAULT_VEHTYPE" speedFactor="1.03" vaporized=""/>
    <tripinfo id="301" depart="452.00" departLane="391086655#1_0" departPos="5.10" departSpeed="0.00" departDelay="0.50" arrival="511.00" arrivalLane="-50633737#1_0" arrivalPos="57.16" arrivalSpeed="7.07" duration="59.00" routeLength="440.15" waitingTime="1.00" waitingCount="1" stopTime="0.00" timeLoss="12.40" rerouteNo="0" devices="tripinfo_301" vType="DEFAULT_VEHTYPE" speedFactor="0.94" vaporized=""/>
    <tripinfo id="58" depart="87.00" departLane="346332100_0" departPos="5.10" departSpeed="0.00" departDelay="0.00" arrival="516.00" arrivalLane="-371385065#0_0" arrivalPos="64.05" arrivalSpeed="8.06" duration="429.00" routeLength="1799.25" waitingTime="262.00" waitingCount="1" stopTime="0.00" timeLoss="282.64" rerouteNo="0" devices="tripinfo_58" vType="DEFAULT_VEHTYPE" speedFactor="1.02" vaporized=""/>
    <tripinfo id="293" depart="440.00" departLane="-249492802#2_0" departPos="5.10" departSpeed="0.00" departDelay="0.50" arrival="516.00" arrivalLane="390001790#5_0" arrivalPos="4.33" arrivalSpeed="14.77" duration="76.00" routeLength="901.94" waitingTime="0.00" waitingCount="0" stopTime="0.00" timeLoss="11.81" rerouteNo="0" devices="tripinfo_293" vType="DEFAULT_VEHTYPE" speedFactor="1.14" vaporized=""/>
    <tripinfo id="18" depart="27.00" departLane="53194748#1_0" departPos="5.10" departSpeed="0.00" departDelay="0.00" arrival="518.00" arrivalLane="24563846_1" arrivalPos="11.27" arrivalSpeed="9.00" duration="491.00" routeLength="1378.07" waitingTime="350.00" waitingCount="4" stopTime="0.00" timeLoss="394.30" rerouteNo="0" devices="tripinfo_18" vType="DEFAULT_VEHTYPE" speedFactor="0.94" vaporized=""/>
    <tripinfo id="7" depart="11.00" departLane="-418989093_0" departPos="5.10" departSpeed="0.00" departDelay="0.50" arrival="520.00" arrivalLane="308900844#3_0" arrivalPos="124.27" arrivalSpeed="6.98" duration="509.00" routeLength="4515.32" waitingTime="0.00" waitingCount="0" stopTime="0.00" timeLoss="46.85" rerouteNo="0" devices="tripinfo_7" vType="DEFAULT_VEHTYPE" speedFactor="0.89" vaporized=""/>
    <tripinfo id="232" depart="348.00" departLane="1020253345#4_0" departPos="5.10" departSpeed="0.00" departDelay="0.00" arrival="520.00" arrivalLane="-391086657#1_0" arrivalPos="30.74" arrivalSpeed="7.66" duration="172.00" routeLength="1452.23" waitingTime="0.00" waitingCount="0" stopTime="0.00" timeLoss="19.52" rerouteNo="0" devices="tripinfo_232" vType="DEFAULT_VEHTYPE" speedFactor="0.97" vaporized=""/>
    <tripinfo id="85" depart="128.00" departLane="51193425#11_0" departPos="5.10" departSpeed="0.00" departDelay="0.50" arrival="527.00" arrivalLane="-390001790#13_0" arrivalPos="3.71" arrivalSpeed="4.55" duration="399.00" routeLength="1634.25" waitingTime="266.00" waitingCount="2" stopTime="0.00" timeLoss="292.91" rerouteNo="0" devices="tripinfo_85" vType="DEFAULT_VEHTYPE" speedFactor="0.98" vaporized=""/>
    <tripinfo id="72" depart="108.00" departLane="24791500#14_0" departPos="5.10" departSpeed="0.00" departDelay="0.00" arrival="528.00" arrivalLane="391086652#4_0" arrivalPos="86.18" arrivalSpeed="7.36" duration="420.00" routeLength="1838.79" waitingTime="235.00" waitingCount="4" stopTime="0.00" timeLoss="276.88" rerouteNo="0" devices="tripinfo_72" vType="DEFAULT_VEHTYPE" speedFactor="0.94" vaporized=""/>
    <tripinfo id="106" depart="159.00" departLane="309708096#10_0" departPos="5.10" departSpeed="0.00" departDelay="0.00" arrival="534.00" arrivalLane="390001790#15_0" arrivalPos="30.41" arrivalSpeed="13.17" duration="375.00" routeLength="2283.86" waitingTime="190.00" waitingCount="3" stopTime="0.00" timeLoss="231.75" rerouteNo="0" devices="tripinfo_106" vType="DEFAULT_VEHTYPE" speedFactor="1.01" vaporized=""/>
    <tripinfo id="111" depart="167.00" departLane="199438203_0" departPos="5.10" departSpeed="0.00" departDelay="0.50" arrival="535.00" arrivalLane="53194201#2_0" arrivalPos="34.67" arrivalSpeed="6.92" duration="368.00" routeLength="2170.42" waitingTime="131.00" waitingCount="1" stopTime="0.00" timeLoss="164.76" rerouteNo="0" devices="tripinfo_111" vType="DEFAULT_VEHTYPE" speedFactor="0.87" vaporized=""/>
    <tripinfo id="48" depart="72.00" departLane="816466883#5_0" departPos="5.10" departSpeed="0.00" departDelay="0.00" arrival="539.00" arrivalLane="53194746_0" arrivalPos="144.67" arrivalSpeed="7.26" duration="467.00" routeLength="1809.09" waitingTime="301.00" waitingCount="3" stopTime="0.00" timeLoss="330.42" rerouteNo="0" devices="tripinfo_48" vType="DEFAULT_VEHTYPE" speedFactor="0.88" vaporized=""/>
    <tripinfo id="168" depart="252.00" departLane="-54225121#1_0" departPos="5.10" departSpeed="0.00" departDelay="0.00" arrival="543.00" arrivalLane="53195173_0" arrivalPos="52.09" arrivalSpeed="7.92" duration="291.00" routeLength="1550.99" waitingTime="109.00" waitingCount="3" stopTime="0.00" timeLoss="151.24" rerouteNo="0" devices="tripinfo_168" vType="DEFAULT_VEHTYPE" speedFactor="0.98" vaporized=""/>
    <tripinfo id="163" depart="245.00" departLane="53273626#2_0" departPos="5.10" departSpeed="0.00" departDelay="0.50" arrival="545.00" arrivalLane="53194667_0" arrivalPos="52.76" arrivalSpeed="8.28" duration="300.00" routeLength="2420.79" waitingTime="80.00" waitingCount="4" stopTime="0.00" timeLoss="137.73" rerouteNo="0" devices="tripinfo_163" vType="DEFAULT_VEHTYPE" speedFactor="1.13" vaporized=""/>
    <tripinfo id="30" depart="45.00" departLane="309708096#2_0" departPos="5.10" departSpeed="0.00" departDelay="0.00" arrival="552.00" arrivalLane="376594245#1_0" arrivalPos="33.34" arrivalSpeed="8.96" duration="507.00" routeLength="1889.17" waitingTime="321.00" waitingCount="4" stopTime="0.00" timeLoss="383.71" rerouteNo="0" devices="tripinfo_30" vType="DEFAULT_VEHTYPE" speedFactor="1.18" vaporized=""/>
    <tripinfo id="114" depart="171.00" departLane="345487680#1_0" departPos="5.10" departSpeed="0.00" departDelay="0.00" arrival="554.00" arrivalLane="370326667#11_0" arrivalPos="20.37" arrivalSpeed="8.29" duration="383.00" routeLength="2090.00" waitingTime="210.00" waitingCount="2" stopTime="0.00" timeLoss="254.74" rerouteNo="0" devices="tripinfo_114" vType="DEFAULT_VEHTYPE" speedFactor="1.10" vaporized=""/>
    <tripinfo id="65" depart="98.00" departLane="53273638#0_0" departPos="0.73" departSpeed="0.00" departDelay="0.50" arrival="569.00" arrivalLane="694715077_0" arrivalPos="32.77" arrivalSpeed="6.46" duration="471.00" routeLength="2627.63" waitingTime="212.00" waitingCount="3" stopTime="0.00" timeLoss="251.55" rerouteNo="0" devices="tripinfo_65" vType="DEFAULT_VEHTYPE" speedFactor="0.88" vaporized=""/>
    <tripinfo id="2" depart="3.00" departLane="418984155_0" departPos="5.10" departSpeed="0.00" departDelay="0.00" arrival="571.00" arrivalLane="370326667#8_0" arrivalPos="15.43" arrivalSpeed="9.49" duration="568.00" routeLength="2705.54" waitingTime="341.00" waitingCount="3" stopTime="0.00" timeLoss="384.50" rerouteNo="0" devices="tripinfo_2" vType="DEFAULT_VEHTYPE" speedFactor="1.01" vaporized=""/>
    <tripinfo id="99" depart="149.00" departLane="53194200_0" departPos="5.10" departSpeed="0.00" departDelay="0.50" arrival="572.00" arrivalLane="-377061440_0" arrivalPos="154.79" arrivalSpeed="8.81" duration="423.00" routeLength="3597.49" waitingTime="103.00" waitingCount="4" stopTime="0.00" timeLoss="163.18" rerouteNo="0" devices="tripinfo_99" vType="DEFAULT_VEHTYPE" speedFactor="1.10" vaporized=""/>